#
# Copyright 2005 Sun Microsystems, Inc.  All rights reserved.
# Use is subject to license terms.
#
# CDDL HEADER START
#
# The contents of this file are subject to the terms of the
# Common Development and Distribution License, Version 1.0 only
# (the "License").  You may not use this file except in compliance
# with the License.
#
# You can obtain a copy of the license at usr/src/OPENSOLARIS.LICENSE
# or http://www.opensolaris.org/os/licensing.
# See the License for the specific language governing permissions
# and limitations under the License.
#
# When distributing Covered Code, include this CDDL HEADER in each
# file and include the License file at usr/src/OPENSOLARIS.LICENSE.
# If applicable, add the following below this CDDL HEADER, with the
# fields enclosed by brackets "[]" replaced with your own identifying
# information: Portions Copyright [yyyy] [name of copyright owner]
#
# CDDL HEADER END
#
#ident	"%Z%%M%	%I%	%E% SMI"
#
# Entries have this format:
#
#	Machine-Name Time Type Class Phone Login
#
# Machine-Name		node name of the remote machine
# Time			day-of-week and time-of-day when you may call
#			(e.g., MoTuTh0800-1700). Use "Any" for any day.
#			Use "Never" for machines that poll you, but that
#			you never call directly.
# Type			device type
# Class			transfer speed
# Phone			phone number (for autodialers) or token (for
#			data switches)
# Login			login sequence is composed of fields and subfields
#			in the format "[expect send] ...".  The expect field
#			may have subfields in the format "expect[-send-expect]".
#
# Example:
#	cuuxb Any ACU 1200 chicago8101242 in:--in: nuucp word: panzer
#
# See the System and Network Administration Manual for details
